
#(C) 2019 by FIZ Karlsruhe - Leibniz Institute for Information Infrastructure.  All rights reserved.
data_96703-ICSD
_database_code_ICSD 96703
_audit_creation_date 2004-10-01
_chemical_name_systematic 'Magnesium boride (1/2)'
_chemical_formula_structural 'Mg B2'
_chemical_formula_sum 'B2 Mg1'
_chemical_name_structure_type AlB2
_exptl_crystal_density_diffrn 2.64
_cell_measurement_temperature 31.73
_publ_section_title

;
Neutron powder diffraction study on Mg(11) B2 synthesized by different
procedures
;
loop_
_citation_id
_citation_journal_full
_citation_year
_citation_journal_volume
_citation_page_first
_citation_page_last
_citation_journal_id_ASTM
primary 'Journal of the Physical Society of Japan' 2002 71 2471 2476 JUPSAU
loop_
_publ_author_name
'Oikawa, K.'
'Kamiyama, T.'
'Mochiku, T.'
'Takeya, H.'
'Furuyama, M.'
'Kamisawa, S.'
'Arai, M.'
'Kadowaki, K.'
_cell_length_a 3.08294(1)
_cell_length_b 3.08294(1)
_cell_length_c 3.51348(1)
_cell_angle_alpha 90
_cell_angle_beta 90
_cell_angle_gamma 120
_cell_volume 28.92
_cell_formula_units_Z 1
_symmetry_space_group_name_H-M 'P 6/m m m'
_symmetry_Int_Tables_number 191
_refine_ls_R_factor_all 0.0181
loop_
_symmetry_equiv_pos_site_id
_symmetry_equiv_pos_as_xyz
1 '-x, -x+y, -z'
2 'x-y, -y, -z'
3 'y, x, -z'
4 '-x+y, -x, -z'
5 '-y, x-y, -z'
6 'x, y, -z'
7 'x, x-y, -z'
8 '-x+y, y, -z'
9 '-y, -x, -z'
10 'x-y, x, -z'
11 'y, -x+y, -z'
12 '-x, -y, -z'
13 'x, x-y, z'
14 '-x+y, y, z'
15 '-y, -x, z'
16 'x-y, x, z'
17 'y, -x+y, z'
18 '-x, -y, z'
19 '-x, -x+y, z'
20 'x-y, -y, z'
21 'y, x, z'
22 '-x+y, -x, z'
23 '-y, x-y, z'
24 'x, y, z'
loop_
_atom_type_symbol
_atom_type_oxidation_number
Mg0+ 0
B0+ 0
loop_
_atom_site_label
_atom_site_type_symbol
_atom_site_symmetry_multiplicity
_atom_site_Wyckoff_symbol
_atom_site_fract_x
_atom_site_fract_y
_atom_site_fract_z
_atom_site_B_iso_or_equiv
_atom_site_occupancy
_atom_site_attached_hydrogens
Mg1 Mg0+ 1 a 0 0 0 0.264 1. 0
B1 B0+ 2 d 0.3333 0.6667 0.5 0.28 1. 0
loop_
_atom_site_aniso_label
_atom_site_aniso_type_symbol
_atom_site_aniso_U_11
_atom_site_aniso_U_22
_atom_site_aniso_U_33
_atom_site_aniso_U_12
_atom_site_aniso_U_13
_atom_site_aniso_U_23
Mg1 Mg0+ 0.00329(16) 0.00329(16) 0.0034(3) 0.00165(8) 0. 0.
B1 B0+ 0.00323(9) 0.00323(9) 0.00419(17) 0.00161(5) 0. 0.
#End of TTdata_96703-ICSD