
#(C) 2020 by FIZ Karlsruhe - Leibniz Institute for Information Infrastructure.  All rights reserved.
data_619639-ICSD
_database_code_ICSD 619639
_audit_creation_date 2008-08-01
_audit_update_record 2017-08-01
_chemical_name_common Cadmium
_chemical_formula_structural Cd
_chemical_formula_sum Cd1
_chemical_name_structure_type hcp#Mg
_exptl_crystal_density_diffrn 8.67
_citation_title

;
X-ray measurement of the root-mean-square displacement of the atoms in cadmium
single crystals
;
loop_
_citation_id
_citation_journal_full
_citation_year
_citation_journal_volume
_citation_page_first
_citation_page_last
_citation_journal_id_ASTM
primary

;
Acta Crystallographica, Section A: Crystal Physics, Diffraction, Theoretical
and General Crystallography
; 1978 34 497 500 ACACBN
loop_
_citation_author_citation_id
_citation_author_name
primary 'Rossmanith, Elisabeth'
_cell_length_a 2.977(1)
_cell_length_b 2.977(1)
_cell_length_c 5.612(2)
_cell_angle_alpha 90.
_cell_angle_beta 90.
_cell_angle_gamma 120.
_cell_volume 43.07
_cell_formula_units_Z 2
_space_group_name_H-M_alt 'P 63/m m c'
_space_group_IT_number 194
loop_
_space_group_symop_id
_space_group_symop_operation_xyz
1 'x, x-y, -z+1/2'
2 '-x+y, y, -z+1/2'
3 '-y, -x, -z+1/2'
4 '-x+y, -x, -z+1/2'
5 '-y, x-y, -z+1/2'
6 'x, y, -z+1/2'
7 '-x, -x+y, z+1/2'
8 'x-y, -y, z+1/2'
9 'y, x, z+1/2'
10 'x-y, x, z+1/2'
11 'y, -x+y, z+1/2'
12 '-x, -y, z+1/2'
13 '-x, -x+y, -z'
14 'x-y, -y, -z'
15 'y, x, -z'
16 'x-y, x, -z'
17 'y, -x+y, -z'
18 '-x, -y, -z'
19 'x, x-y, z'
20 '-x+y, y, z'
21 '-y, -x, z'
22 '-x+y, -x, z'
23 '-y, x-y, z'
24 'x, y, z'
loop_
_atom_type_symbol
_atom_type_oxidation_number
Cd0+ 0
loop_
_atom_site_label
_atom_site_type_symbol
_atom_site_symmetry_multiplicity
_atom_site_Wyckoff_symbol
_atom_site_fract_x
_atom_site_fract_y
_atom_site_fract_z
_atom_site_B_iso_or_equiv
_atom_site_occupancy
Cd1 Cd0+ 2 a 0 0 0 1.8 1.
#End of TTdata_619639-ICSD