
#(C) 2019 by FIZ Karlsruhe - Leibniz Institute for Information Infrastructure.  All rights reserved.
data_174005-ICSD
_database_code_ICSD 174005
_audit_creation_date 2010-02-01
_audit_update_record 2015-02-01
_chemical_name_systematic Mercury
_chemical_formula_structural Hg
_chemical_formula_sum Hg1
_chemical_name_structure_type Hg(LT)
_chemical_name_mineral Mercury
_exptl_crystal_density_diffrn 14.4
_cell_measurement_temperature 78.
_publ_section_title 'The structure of mercury at low temperature'
loop_
_citation_id
_citation_journal_full
_citation_year
_citation_journal_volume
_citation_page_first
_citation_page_last
_citation_journal_id_ASTM
primary 'Acta Crystallographica' 1957 10 58 60 ACCRA9
loop_
_publ_author_name
'Barrett, C.S.'
_cell_length_a 2.9925
_cell_length_b 2.9925
_cell_length_c 2.9925
_cell_angle_alpha 70.74
_cell_angle_beta 70.74
_cell_angle_gamma 70.74
_cell_volume 23.14
_cell_formula_units_Z 1
_symmetry_space_group_name_H-M 'R -3 m R'
_symmetry_Int_Tables_number 166
loop_
_symmetry_equiv_pos_site_id
_symmetry_equiv_pos_as_xyz
1 '-z, -y, -x'
2 '-z, -x, -y'
3 '-x, -z, -y'
4 '-y, -z, -x'
5 '-y, -x, -z'
6 '-x, -y, -z'
7 'z, y, x'
8 'z, x, y'
9 'x, z, y'
10 'y, z, x'
11 'y, x, z'
12 'x, y, z'
loop_
_atom_type_symbol
_atom_type_oxidation_number
Hg0+ 0
loop_
_atom_site_label
_atom_site_type_symbol
_atom_site_symmetry_multiplicity
_atom_site_Wyckoff_symbol
_atom_site_fract_x
_atom_site_fract_y
_atom_site_fract_z
_atom_site_B_iso_or_equiv
_atom_site_occupancy
_atom_site_attached_hydrogens
Hg1 Hg0+ 1 a 0 0 0 . 1. 0
#End of TTdata_174005-ICSD